 PRIMCOORD   1
Ti    4.0838863990    0.0884356950   -0.1156149230
Ti    0.1235020720    4.0350957440   -0.1142985520
Ti    0.1199604600    0.0860246730   -0.1136295560
Ti    4.0848614760    4.0372101630   -0.1192136950
 O    4.1057797540    5.9239506710    0.1113078290
 O    0.1408852850    1.9727632590    0.1168973160
 O    5.9557055880    0.1301684680    0.1059767670
 O    1.9953334930    4.0768262080    0.1072238920
 O    1.9933243320   -0.1229706400   -0.1372235640
 O    5.9582249020    3.8282066400   -0.1427648480
 O    3.8521344630    1.9750292170   -0.1396212030
 O   -0.1082501370    5.9216903990   -0.1382856680
Sr    2.0916560220    6.0010534880    1.8761276010
Sr    6.0520311680    2.0544001200    1.8748135300
Sr    2.0875587670    2.0519996160    1.8762644670
Sr    6.0524699200    6.0031771840    1.8706704140
 O    0.1389273210   -0.1262844560    1.9736907960
 O    4.1037644070    3.8248954840    1.9680902180
 O    3.8552194860    0.1283551890    1.9704607530
 O   -0.1050766620    4.0750156170    1.9717872520
Ti    0.1177894690    0.0840306000    3.8487296540
Ti    4.0826792320    4.0352191500    3.8431356720
Ti    4.0791354410    0.0861487740    3.8438031410
Ti    0.1187647940    4.0328117940    3.8451356770
 O    4.1000664540    1.9728883460    4.0743229390
 O    0.1396873040    5.9195513240    4.0756547360
 O    1.9896125250    0.1257610210    4.0703189100
 O    5.9545110820    4.0769549880    4.0646500000
 O    5.9525001870   -0.1228513640    3.8202016940
 O    1.9921309530    3.8238101320    3.8215943120
 O    3.8509344040    5.9218155240    3.8191398070
 O   -0.1139596270    1.9706263160    3.8247366070
Sr    2.0859363220    2.0499991070    5.8391640360
Sr    6.0508244090    6.0011780380    5.8335509650
Sr    2.0863778240    5.9987769400    5.8350263890
Sr    6.0467356880    2.0521210200    5.8336945070
 O    4.0981020600   -0.1261575770    5.9311223330
 O    0.1376655500    3.8205022390    5.9324443960
 O   -0.1108777640    0.1239506340    5.9348162500
 O    3.8540982620    4.0751425300    5.9292159760
 PRIMCOORD   2
Ti    4.0746842248    0.0885654498   -0.1208319578
Ti    0.1143731985    4.0351445625   -0.1192387103
Ti    0.1141703775    0.0919600316   -0.1107896384
Ti    4.0789329885    4.0432714055   -0.1163474433
 O    4.0880226858    5.9227924984    0.1464892223
 O    0.1234165872    1.9718376814    0.1506035550
 O    5.9614757083    0.1060158877    0.0475945286
 O    2.0013025150    4.0523034615    0.0490106900
 O    1.9989458518   -0.1025264132   -0.0757840136
 O    5.9636507036    3.8484673678   -0.0813903364
 O    3.8838818528    1.9741455628   -0.1792202418
 O   -0.0762243178    5.9207033209   -0.1759494013
Sr    2.0795825431    5.9985340724    1.8746015588
Sr    6.0400546447    2.0518201196    1.8733120282
Sr    2.0778484647    2.0520046451    1.8805214907
Sr    6.0426580425    6.0029192679    1.8753408788
 O    0.0852259285   -0.1610569918    1.9740238911
 O    4.0499237322    3.7882158775    1.9684197471
 O    3.9202308357    0.1676681973    1.9704611121
 O   -0.0400075009    4.1123550862    1.9717961367
Ti    0.1087101976    0.0842272444    3.8436892717
Ti    4.0734585135    4.0352955772    3.8379217084
Ti    4.0732851665    0.0923024390    3.8466017390
Ti    0.1129745520    4.0386588301    3.8479677359
 O    4.0824073961    1.9718704389    4.1095102827
 O    0.1222791152    5.9184078924    4.1093041568
 O    1.9955411175    0.1017172654    4.0119980841
 O    5.9602347634    4.0525728368    4.0063144878
 O    5.9578851454   -0.1025140181    3.8815219928
 O    1.9977246598    3.8437566625    3.8828735026
 O    3.8824674397    5.9207358740    3.7794318950
 O   -0.0821940300    1.9697955697    3.7868869818
Sr    2.0738961135    2.0477253743    5.8377308625
Sr    6.0388815081    5.9983529223    5.8322473052
Sr    2.0765543302    5.9985702011    5.8394234379
Sr    6.0369630094    2.0521341050    5.8385084530
 O    4.0441314136   -0.1626455895    5.9315177924
 O    0.0840013815    3.7855436018    5.9328630473
 O   -0.0457610582    0.1615538572    5.9348871725
 O    3.9190232900    4.1141201098    5.9292938295
 PRIMCOORD   3
Ti    4.0504359387    0.0877701208   -0.1298912889
Ti    0.0899603328    4.0345444799   -0.1284800882
Ti    0.0880428347    0.1012450679   -0.1141156171
Ti    4.0530074647    4.0527935907   -0.1195574575
 O    4.0548509927    5.9208578274    0.1864303864
 O    0.0899943370    1.9697793659    0.1901578760
 O    5.9777228499    0.0536775711    0.0310800099
 O    2.0173414466    4.0003875737    0.0324751236
 O    2.0147553840   -0.0547257477   -0.0500986654
 O    5.9796483145    3.8965446538   -0.0556775851
 O    3.9475280144    1.9717958093   -0.2214633268
 O   -0.0128816401    5.9186512656   -0.2192103595
Sr    2.0582460387    5.9950056419    1.8733215789
Sr    6.0189241860    2.0481300511    1.8717842178
Sr    2.0549405079    2.0524786762    1.8814134987
Sr    6.0201343357    6.0037536571    1.8761869563
 O    0.0775896901   -0.2014212567    1.9773777003
 O    4.0424971576    3.7482466171    1.9720488287
 O    3.9598025345    0.2100365428    1.9737295806
 O   -0.0006498015    4.1555136354    1.9747778963
Ti    0.0841743648    0.0834052704    3.8348175962
Ti    4.0492052676    4.0345858976    3.8291417780
Ti    4.0472222352    0.1016855447    3.8437490402
Ti    0.0867978967    4.0480946020    3.8449251715
 O    4.0492115705    1.9698065628    4.1495299265
 O    0.0888610601    5.9165895653    4.1489961340
 O    2.0116640170    0.0493540965    3.9955572877
 O    5.9765425472    4.0005157880    3.9899359999
 O    5.9739667586   -0.0545514371    3.9074006630
 O    2.0135797832    3.8920558726    3.9087573000
 O    3.9463350826    5.9186082549    3.7373498348
 O   -0.0185884304    1.9675816995    3.7439192112
Sr    2.0524539126    2.0439551325    5.8362131464
Sr    6.0176763877    5.9949133539    5.8304424177
Sr    2.0538029751    5.9992327223    5.8400666767
Sr    6.0145097706    2.0526753343    5.8391009560
 O    4.0367744797   -0.2028605222    5.9349175692
 O    0.0763609317    3.7453293517    5.9360211475
 O   -0.0063890167    0.2044332974    5.9376377863
 O    3.9585605785    4.1568467549    5.9323479274
 PRIMCOORD   4
Ti    3.9763428240    0.0847939485   -0.1285713433
Ti    0.0158072124    4.0315695595   -0.1269410006
Ti    0.0148341095    0.1015723441   -0.1101314703
Ti    3.9799456909    4.0534230949   -0.1154110203
 O    4.0909059800    5.9221540601    0.1731800995
 O    0.1261682950    1.9712972598    0.1739502547
 O    6.0215172501    0.0591866770    0.0274009089
 O    2.0612375613    4.0058844194    0.0288957295
 O    2.0584884688   -0.0595517609   -0.0488154602
 O    6.0233319374    3.8917220413   -0.0544354577
 O    3.9801020983    1.9729221960   -0.2169865862
 O    0.0195804051    5.9200190003   -0.2125653085
Sr    2.0207343304    5.9897449319    1.8742653277
Sr    5.9819529775    2.0424921927    1.8726959218
Sr    2.0183684100    2.0530557985    1.8905443289
Sr    5.9841564821    6.0045471581    1.8858004959
 O    0.1056441377   -0.1881579425    1.9749633064
 O    4.0704484988    3.7585961146    1.9698975139
 O    3.9964079362    0.2034021733    1.9716323909
 O    0.0359628402    4.1465587017    1.9723727485
Ti    0.0099519544    0.0804066330    3.8362286428
Ti    3.9750736126    4.0314645152    3.8303309806
Ti    3.9740882629    0.1023191522    3.8477592169
Ti    0.0135672345    4.0483126614    3.8487427107
 O    4.0852272628    1.9710505231    4.1363024614
 O    0.1250223238    5.9180522594    4.1327947892
 O    2.0555089217    0.0549187736    3.9921151505
 O    6.0203469070    4.0060693792    3.9863653614
 O    6.0176238954   -0.0593953235    3.9087227464
 O    2.0573379002    3.8871399660    3.9101521025
 O    3.9788133712    5.9196761308    3.7419284444
 O    0.0137916241    1.9689451715    3.7506194420
Sr    2.0150050749    2.0386407852    5.8372856819
Sr    5.9807957189    5.9893534174    5.8314706266
Sr    2.0172346106    5.9999512389    5.8494265555
Sr    5.9784884840    2.0534203301    5.8489560629
 O    4.0647936942   -0.1924806994    5.9328504493
 O    0.1045084676    3.7585276728    5.9336915640
 O    0.0302178282    0.1954794876    5.9353026315
 O    3.9952784965    4.1502382423    5.9303298353
 PRIMCOORD   5
Ti    3.9674360742    0.0849073947   -0.1244066331
Ti    0.0067839194    4.0307068392   -0.1215648862
Ti    0.0101779312    0.1010664463   -0.1072078899
Ti    3.9751112068    4.0536905875   -0.1131093055
 O    4.1529362829    5.9227394854    0.1307972376
 O    0.1886384707    1.9716501660    0.1287414243
 O    6.0254319863    0.1220622491    0.0263748867
 O    2.0652959117    4.0683251661    0.0281855357
 O    2.0626904712   -0.1199797449   -0.0552381065
 O    6.0273029224    3.8310605860   -0.0611193600
 O    3.9202204597    1.9731147109   -0.1815433106
 O   -0.0403676266    5.9197795769   -0.1672279371
Sr    2.0136748108    5.9915437008    1.8794799528
Sr    5.9759362486    2.0439587931    1.8793164793
Sr    2.0183735119    2.0534936133    1.8951641243
Sr    5.9839433449    6.0045841901    1.8915091188
 O    0.1139227091   -0.1464100958    1.9717315268
 O    4.0788011357    3.7952344310    1.9655170834
 O    3.9981053106    0.1639908656    1.9675758923
 O    0.0374729732    4.0995457175    1.9693843605
Ti    0.0010707643    0.0797849648    3.8415725208
Ti    3.9662709580    4.0315448550    3.8344975436
Ti    3.9693809982    0.1027951931    3.8500759152
Ti    0.0090425969    4.0476920520    3.8517153941
 O    4.1472246422    1.9717819755    4.0939149256
 O    0.1874111116    5.9183579929    4.0875647677
 O    2.0595804324    0.1173767868    3.9912984111
 O    6.0241874591    4.0687843554    3.9851806591
 O    6.0215886566   -0.1199466385    3.9019832595
 O    2.0614419080    3.8267333944    3.9035715366
 O    3.9189611895    5.9198235450    3.7773266201
 O   -0.0461053116    1.9688016296    3.7959098123
Sr    2.0079740133    2.0406247530    5.8424835653
Sr    5.9746852423    5.9905962551    5.8379463137
Sr    2.0172585149    6.0001494354    5.8538468162
Sr    5.9782700450    2.0536593623    5.8544030584
 O    4.0731036910   -0.1557939858    5.9284873762
 O    0.1127133795    3.8002707925    5.9303931615
 O    0.0317764619    0.1485833498    5.9323506908
 O    3.9968882834    4.1106375379    5.9262342938
 PRIMCOORD   6
Ti    3.9560620588    0.0818014274   -0.1156638919
Ti   -0.0046387460    4.0290854110   -0.1192050840
Ti   -0.0008971632    0.1022933652   -0.1037055143
Ti    3.9649049623    4.0446256867   -0.1119001629
 O    4.1886469779    5.9251043505    0.0362231600
 O    0.2201728533    1.9734380928    0.1045087656
 O    6.0326380059    0.1458843882    0.0328321755
 O    2.0719461169    4.0933937732    0.0296618784
 O    2.0692404399   -0.1386106947   -0.0665849261
 O    6.0345038343    3.8112329198   -0.0700997125
 O    3.9045090662    1.9758558500   -0.0874926588
 O   -0.0558891719    5.9208671562   -0.1455969027
Sr    2.0047869490    5.9883579717    1.8903748054
Sr    5.9583631863    2.0499110619    1.8832418627
Sr    2.0104238768    2.0508488383    1.9037398609
Sr    5.9704047596    6.0019819420    1.8816451365
 O    0.1280831803   -0.1253559313    1.9687673553
 O    4.0950746239    3.8876462187    1.9615863084
 O    3.9969655897    0.0688177329    1.9632462877
 O    0.0365287195    4.0779085874    1.9672065647
Ti   -0.0103427697    0.0779445285    3.8438494099
Ti    3.9548744249    4.0286391742    3.8431658874
Ti    3.9592086914    0.0935049783    3.8510956231
Ti   -0.0020635339    4.0490645222    3.8550921585
 O    4.1829649352    1.9740417401    3.9992246799
 O    0.2189680860    5.9201961574    4.0632003001
 O    2.0662601282    0.1424074040    3.9926534184
 O    6.0314476123    4.0926542860    3.9915329492
 O    6.0288079932   -0.1398181777    3.8928965091
 O    2.0680553601    3.8081340733    3.8921332247
 O    3.9032482799    5.9226344848    3.8712188033
 O   -0.0616232134    1.9697968937    3.8174090260
Sr    1.9990899567    2.0372880841    5.8533339939
Sr    5.9571742378    5.9966902210    5.8419263497
Sr    2.0091978453    5.9976370709    5.8624650508
Sr    5.9646763947    2.0509353010    5.8446265111
 O    4.0893769788   -0.0634120802    5.9246324975
 O    0.1268682335    3.8214446469    5.9275445030
 O    0.0308279599    0.1268563852    5.9302825137
 O    3.9957653707    4.0155944436    5.9220481177
 PRIMCOORD   7
Ti    3.9424187083    0.0840609677   -0.1052007728
Ti   -0.0179665432    4.0301065615   -0.1052009703
Ti   -0.0085801508    0.1019777104   -0.0961040603
Ti    3.9568165145    4.0506740315   -0.1041917811
 O    4.2548472175    5.9228230310   -0.0299792291
 O    0.2890323512    1.9722240635    0.0066071531
 O    6.0403322696    0.2075766999    0.0209087460
 O    2.0802746121    4.1550316349    0.0190971550
 O    2.0772357905   -0.1952774806   -0.0680978832
 O    6.0420272070    3.7553411936   -0.0729886040
 O    3.8493854513    1.9730681834   -0.0374719933
 O   -0.1110876161    5.9197727232   -0.0579927841
Sr    1.9900470187    5.9945221346    1.9033137910
Sr    5.9501465949    2.0519384644    1.8967679517
Sr    1.9970714706    2.0473968943    1.9049545638
Sr    5.9604142377    5.9987276780    1.8898419849
 O    0.1348286290   -0.0362066555    1.9631454471
 O    4.1001563368    3.9407187151    1.9559066079
 O    4.0073035443    0.0080549251    1.9579476978
 O    0.0472383954    3.9825007389    1.9614865019
Ti   -0.0236942997    0.0790238001    3.8578216641
Ti    3.9412198144    4.0308638089    3.8535508362
Ti    3.9511231603    0.0995923845    3.8588144234
Ti   -0.0097880552    4.0487937583    3.8626299473
 O    4.2491647690    1.9717486628    3.9330102898
 O    0.2878771553    5.9190153629    3.9653238741
 O    2.0745589058    0.2039675105    3.9821022344
 O    6.0391319628    4.1544010134    3.9796464124
 O    6.0363141124   -0.1957709414    3.8900245590
 O    2.0760299046    3.7514871644    3.8906393359
 O    3.8481895499    5.9198544675    3.9212732597
 O   -0.1168349728    1.9686971038    3.9049982254
Sr    1.9843120933    2.0434286847    5.8663058147
Sr    5.9489369464    5.9987405692    5.8555663010
Sr    1.9958620408    5.9942458387    5.8637037767
Sr    5.9546967303    2.0476408123    5.8528854714
 O    4.0944016705   -0.0103783035    5.9189302299
 O    0.1336030206    3.9106326689    5.9219117505
 O    0.0414887534    0.0314073476    5.9245170861
 O    4.0060777898    3.9548983564    5.9167118213
 PRIMCOORD   8
Ti    3.9369369993    0.0869851502   -0.0246509306
Ti   -0.0234167970    4.0338658979   -0.0236477105
Ti   -0.0101577360    0.1027300252   -0.0195352239
Ti    3.9548069707    4.0538210195   -0.0254310719
 O    4.2660215100    5.9210974540   -0.0375446985
 O    0.3011952827    1.9700475817   -0.0281219744
 O    6.0433820885    0.2195599182   -0.0686772482
 O    2.0830896169    4.1662515034   -0.0678375169
 O    2.0804484557   -0.2052791408   -0.0531503621
 O    6.0453483771    3.7459675679   -0.0586777282
 O    3.8407231266    1.9717258850   -0.1029932563
 O   -0.1194496094    5.9183327463   -0.1074115989
Sr    1.9857626106    5.9960704278    1.9453928104
Sr    5.9455710250    2.0498379448    1.9425150009
Sr    1.9866038119    2.0472543621    1.9460491070
Sr    5.9516060289    5.9980657176    1.9392898434
 O    0.0893027984   -0.0431474255    1.9142014190
 O    4.0542995279    3.9123513851    1.9090263745
 O    4.0651024856    0.0340714973    1.9114613282
 O    0.1047000840    3.9854299890    1.9123358171
Ti   -0.0291349987    0.0828728670    3.9393983700
Ti    3.9357284248    4.0337019164    3.9341506375
Ti    3.9490955035    0.1028300735    3.9375889224
Ti   -0.0113692513    4.0494453517    3.9392332328
 O    4.2603027056    1.9701332678    3.9254455982
 O    0.2999903212    5.9167422534    3.9305985229
 O    2.0773380318    0.2151310451    3.8952013526
 O    6.0422064644    4.1664056870    3.8901379160
 O    6.0396038713   -0.2051630358    3.9043683855
 O    2.0792607931    3.7415588780    3.9056036166
 O    3.8395260298    5.9184051429    3.8557245246
 O   -0.1251902513    1.9673743823    3.8555662694
Sr    1.9800421685    2.0450759347    5.9084183315
Sr    5.9443762023    5.9965653000    5.9012878523
Sr    1.9854109744    5.9939842302    5.9048296703
Sr    5.9458791302    2.0470730378    5.9023293384
 O    4.0485906130   -0.0387764724    5.8720744187
 O    0.0881425323    3.9037051839    5.8729709537
 O    0.0990318100    0.0342866702    5.8753682131
 O    4.0639053586    3.9809310646    5.8702283286
 PRIMCOORD   9
Ti    3.9421252258    0.0817136063    0.0052697060
Ti   -0.0183382495    4.0284036782    0.0063821261
Ti   -0.0147879436    0.0925185210    0.0038865593
Ti    3.9505865612    4.0436840844   -0.0015564785
 O    4.2415941792    5.9247559697   -0.0339874218
 O    0.2764180022    1.9734995324   -0.0281258242
 O    6.0427786826    0.1903683122   -0.1747296621
 O    2.0825396982    4.1370072242   -0.1701309096
 O    2.0798419249   -0.1754590246    0.0186171468
 O    6.0446204791    3.7756036429    0.0106747348
 O    3.8741745150    1.9752205530   -0.1370370849
 O   -0.0863810816    5.9218624167   -0.1362329754
Sr    1.9841515698    5.9925187064    1.9671398261
Sr    5.9451337565    2.0460025971    1.9654960221
Sr    1.9843417256    2.0510288272    1.9644295902
Sr    5.9493576611    6.0017917592    1.9596670713
 O   -0.0037934574   -0.0529193019    1.8983356066
 O    3.9644165150    3.8984965972    1.8930561609
 O    4.1532340559    0.0559169459    1.8949624443
 O    0.1899475646    4.0026742841    1.8964463313
Ti   -0.0238043759    0.0773903833    3.9697173457
Ti    3.9411179772    4.0284254287    3.9639038970
Ti    3.9443989021    0.0922961755    3.9613076454
Ti   -0.0156092406    4.0389848629    3.9629234604
 O    4.2340946113    1.9737552796    3.9291372191
 O    0.2736234596    5.9203936823    3.9306341938
 O    2.0766670352    0.1843594156    3.7896179649
 O    6.0415400710    4.1355469285    3.7873581600
 O    6.0388799204   -0.1734676359    3.9761592185
 O    2.0785584229    3.7730348203    3.9751571633
 O    3.8747689132    5.9221319212    3.8215434902
 O   -0.0904253983    1.9709412137    3.8270590436
Sr    1.9789388592    2.0419315483    5.9296926949
Sr    5.9434981085    5.9929576131    5.9242790952
Sr    1.9828300435    5.9974542911    5.9238554103
Sr    5.9433904371    2.0511327080    5.9215944465
 O    3.9556563936   -0.0526181600    5.8558608977
 O   -0.0019375051    3.8936785760    5.8574406466
 O    0.1869969059    0.0517325264    5.8593170188
 O    4.1494681660    4.0025717749    5.8539948539
 PRIMCOORD  10
Ti    3.9527594749    0.0890189990    0.0129714403
Ti   -0.0072946769    4.0355197780    0.0146522241
Ti   -0.0079978613    0.0857752314    0.0188899198
Ti    3.9564950761    4.0368405139    0.0130972284
 O    4.1864937698    5.9239556117    0.0414704865
 O    0.2216842366    1.9728456956    0.0468924880
 O    6.0383316079    0.1345683325   -0.1785725955
 O    2.0780459956    4.0814597481   -0.1805433651
 O    2.0750699842   -0.1264240608    0.0056900517
 O    6.0402029741    3.8250155308    0.0029597919
 O    3.9271195997    1.9750794953   -0.2279709393
 O   -0.0335112619    5.9216039839   -0.2263560490
Sr    1.9886294269    5.9997155947    1.9759777523
Sr    5.9482101988    2.0525603878    1.9748923737
Sr    1.9869988353    2.0498661151    1.9803049309
Sr    5.9521110128    6.0015593335    1.9739732360
 O   -0.0033062563   -0.1354821190    1.8916443558
 O    3.9586696586    3.8159455903    1.8858595712
 O    4.1400085911    0.1393794867    1.8876343523
 O    0.1828943839    4.0861458639    1.8888040288
Ti   -0.0131992682    0.0846183339    3.9774385827
Ti    3.9517971488    4.0356923502    3.9721209389
Ti    3.9510860540    0.0859486770    3.9763617540
Ti   -0.0094886780    4.0324075299    3.9775569774
 O    4.1810450209    1.9730281202    4.0043128413
 O    0.2202614552    5.9195281402    4.0057340509
 O    2.0722140003    0.1302758989    3.7858027407
 O    6.0373255192    4.0816049932    3.7768295078
 O    6.0343333731   -0.1262634536    3.9630963498
 O    2.0740844082    3.8206695811    3.9673619078
 O    3.9258454102    5.9217620433    3.7308782719
 O   -0.0391301543    1.9706344367    3.7362787147
Sr    1.9822197880    2.0481713817    5.9393588487
Sr    5.9477629168    5.9997866026    5.9335706689
Sr    1.9860851839    5.9971100720    5.9384919220
Sr    5.9461662114    2.0500128481    5.9378795426
 O    3.9559418991   -0.1353400437    5.8491382961
 O   -0.0074152565    3.8115569985    5.8502874744
 O    0.1738897261    0.1348681874    5.8520527919
 O    4.1421735631    4.0863004752    5.8462933700
 PRIMCOORD  11
Ti    3.9501005523    0.0871145504    0.0070267251
Ti   -0.0102648120    4.0337996016    0.0083475374
Ti   -0.0024964275    0.0845551392    0.0203827732
Ti    3.9623805653    4.0357612138    0.0147951016
 O    4.1928960641    5.9266706401    0.0425429809
 O    0.2279690179    1.9754744238    0.0481512213
 O    6.0366676246    0.1455547253   -0.0771695439
 O    2.0762807532    4.0922137508   -0.0756454041
 O    2.0731873544   -0.1288167713   -0.0872298549
 O    6.0380962516    3.8223649868   -0.0929977000
 O    3.9204526656    1.9776556332   -0.2280631969
 O   -0.0399153706    5.9243291891   -0.2267499549
Sr    1.9918053998    5.9898585190    1.9706229539
Sr    5.9522191644    2.0432026100    1.9692516870
Sr    1.9922029037    2.0409582707    1.9754122175
Sr    5.9570555678    5.9921310299    1.9698770323
 O    0.0901734752   -0.1324529344    1.8941102294
 O    4.0553230368    3.8186982535    1.8885013251
 O    4.0391608021    0.1446631321    1.8898991834
 O    0.0785569243    4.0912823185    1.8912267027
Ti   -0.0159680580    0.0827197721    3.9713652425
Ti    3.9488883648    4.0339114795    3.9657519308
Ti    3.9566588682    0.0846884149    3.9777725821
Ti   -0.0036762983    4.0313554708    3.9791206646
 O    4.1871802848    1.9756175911    4.0056495067
 O    0.2268122607    5.9222735604    4.0069549860
 O    2.0705649142    0.1411729693    3.8872582581
 O    6.0354751481    4.0923486185    3.8818772640
 O    6.0323745533   -0.1287056677    3.8702973949
 O    2.0719911467    3.8179454931    3.8714352132
 O    3.9192644107    5.9244651483    3.7307482722
 O   -0.0456508094    1.9732693695    3.7363589707
Sr    1.9861316158    2.0388034417    5.9337033905
Sr    5.9509504143    5.9899821992    5.9281197908
Sr    1.9909803767    5.9877304022    5.9342817124
Sr    5.9513550790    2.0410843430    5.9328866748
 O    4.0494131371   -0.1323392782    5.8515176563
 O    0.0891969682    3.8142996326    5.8528439909
 O    0.0730300366    0.1402573466    5.8542451678
 O    4.0377891662    4.0914236958    5.8486361507
 PRIMCOORD  12
Ti    3.9447506822    0.0700707803    0.0071860447
Ti   -0.0155930523    4.0168522244    0.0084752041
Ti   -0.0040870968    0.0678954686    0.0240972620
Ti    3.9607493139    4.0192263030    0.0185553301
 O    4.1830132627    5.9383738462    0.0287357966
 O    0.2180770114    1.9871336758    0.0343392198
 O    6.0386612786    0.1435163244    0.0173996236
 O    2.0782651492    4.0902129349    0.0192729701
 O    2.0752767528   -0.1011475634   -0.1804996904
 O    6.0402861739    3.8501008616   -0.1867898919
 O    3.9348896637    1.9891898325   -0.2175073407
 O   -0.0253994375    5.9359056330   -0.2162161931
Sr    1.9950918333    5.9694366640    1.9759234233
Sr    5.9557671460    2.0226651940    1.9745779083
Sr    1.9864830787    2.0204198300    1.9716661202
Sr    5.9514929109    5.9717521103    1.9661969588
 O    0.1844560739   -0.1047646735    1.8924490130
 O    4.1500729855    3.8465349342    1.8868162690
 O    3.9451903098    0.1424899556    1.8886040693
 O   -0.0156738135    4.0891956447    1.8898772679
Ti   -0.0212309245    0.0656378885    3.9714456862
Ti    3.9434978139    4.0169869580    3.9658031706
Ti    3.9550195239    0.0680076831    3.9814181484
Ti   -0.0052436084    4.0148060462    3.9828070443
 O    4.1772494664    1.9872480365    3.9917456499
 O    0.2169503709    5.9339742557    3.9930380056
 O    2.0725047539    0.1391083336    3.9817135105
 O    6.0375178583    4.0903220024    3.9766405312
 O    6.0345450345   -0.1010031717    3.7769002774
 O    2.0741444549    3.8457235804    3.7774886401
 O    3.9337731049    5.9360503871    3.7411706486
 O   -0.0310927731    1.9847935227    3.7468228165
Sr    1.9895270635    2.0182271589    5.9388588791
Sr    5.9544129395    5.9695831332    5.9333420229
Sr    1.9852286678    5.9673574681    5.9305439530
Sr    5.9458031261    2.0205378521    5.9290413024
 O    4.1436296267   -0.1046477392    5.8498442905
 O    0.1839958133    3.8421408335    5.8511309482
 O   -0.0208632119    0.1380707541    5.8529271421
 O    3.9434737688    4.0893373209    5.8472748053
 PRIMCOORD  13
Ti    3.9501128030   -0.0182136000    0.0124273340
Ti   -0.0102604720    3.9284474500    0.0137755320
Ti   -0.0112320620   -0.0203315570    0.0173684200
Ti    3.9536509590    3.9308618250    0.0117640710
 O    4.1863778300    5.9930429790    0.0321717500
 O    0.2214917820    2.0418528750    0.0377627260
 O    6.0406745570    0.1931923840    0.0340360000
 O    2.0802876350    4.1398650620    0.0353150760
 O    2.0782933360   -0.0599462170   -0.2091647960
 O    6.0431787550    3.8912461610   -0.2146736640
 O    3.9327329800    2.0441215390   -0.2187571170
 O   -0.0276433490    5.9907797140   -0.2174207210
Sr    1.9848536340    5.9116760560    1.9806402310
Sr    5.9452104220    1.9650208720    1.9793082340
Sr    1.9807641940    1.9626197220    1.9807834890
Sr    5.9456520630    5.9137982020    1.9751708380
 O    0.2126827270   -0.0625322590    1.8907065250
 O    4.1774901520    3.8886550050    1.8851188100
 O    3.9289734590    0.1921048440    1.8874743690
 O   -0.0313470070    4.1387660090    1.8888168350
Ti   -0.0159850390   -0.0226117710    3.9767931290
Ti    3.9489093080    3.9285782670    3.9711989740
Ti    3.9479399480   -0.0202014090    3.9747933610
Ti   -0.0124468950    3.9264569280    3.9761253840
 O    4.1806544390    2.0419821960    3.9951949090
 O    0.2202775730    5.9886421990    3.9965247870
 O    2.0745754570    0.1887983740    3.9983949010
 O    6.0394577000    4.1399864970    3.9927398410
 O    6.0374627900   -0.0598136530    3.7482771370
 O    2.0770775470    3.8868426170    3.7496849350
 O    3.9315226230    5.9909090580    3.7400115860
 O   -0.0333689700    2.0397171300    3.7456058460
Sr    1.9791188280    1.9606200670    5.9436637960
Sr    5.9440300870    5.9117976590    5.9380700440
Sr    1.9795576710    5.9093967520    5.9395214430
Sr    5.9399326150    1.9627441840    5.9382068920
 O    4.1718563870   -0.0624074840    5.8481357610
 O    0.2113949920    3.8842525150    5.8494738560
 O   -0.0371232040    0.1877031880    5.8518318340
 O    3.9278248260    4.1389019060    5.8462444720
